 variables=x,y,rho,u,v
 zone i=          100  j=          100
   0.00000000       0.00000000       1.00000000       0.00000000       0.00000000    
   9.99999978E-03   0.00000000       1.00000000       0.00000000       0.00000000    
   1.99999996E-02   0.00000000       1.00000000       0.00000000       0.00000000    
   2.99999993E-02   0.00000000       1.00000000       0.00000000       0.00000000    
   3.99999991E-02   0.00000000       1.00000000       0.00000000       0.00000000    
   4.99999970E-02   0.00000000       1.00000000       0.00000000       0.00000000    
   5.99999987E-02   0.00000000       1.00000000       0.00000000       0.00000000    
   7.00000003E-02   0.00000000       1.00000000       0.00000000       0.00000000    
   7.99999982E-02   0.00000000       1.00000000       0.00000000       0.00000000    
   8.99999961E-02   0.00000000       1.00000000       0.00000000       0.00000000    
   9.99999940E-02   0.00000000       1.00000000       0.00000000       0.00000000    
  0.109999999       0.00000000       1.00000000       0.00000000       0.00000000    
  0.119999997       0.00000000       1.00000000       0.00000000       0.00000000    
  0.129999995       0.00000000       1.00000000       0.00000000       0.00000000    
  0.140000001       0.00000000       1.00000000       0.00000000       0.00000000    
  0.149999991       0.00000000       1.00000000       0.00000000       0.00000000    
  0.159999996       0.00000000       1.00000000       0.00000000       0.00000000    
  0.170000002       0.00000000       1.00000000       0.00000000       0.00000000    
  0.179999992       0.00000000       1.00000000       0.00000000       0.00000000    
  0.189999998       0.00000000       1.00000000       0.00000000       0.00000000    
  0.199999988       0.00000000       1.00000000       0.00000000       0.00000000    
  0.209999993       0.00000000       1.00000000       0.00000000       0.00000000    
  0.219999999       0.00000000       1.00000000       0.00000000       0.00000000    
  0.229999989       0.00000000       1.00000000       0.00000000       0.00000000    
  0.239999995       0.00000000       1.00000000       0.00000000       0.00000000    
  0.250000000       0.00000000       1.00000000       0.00000000       0.00000000    
  0.259999990       0.00000000       1.00000000       0.00000000       0.00000000    
  0.269999981       0.00000000       1.00000000       0.00000000       0.00000000    
  0.280000001       0.00000000       1.00000000       0.00000000       0.00000000    
  0.289999992       0.00000000       1.00000000       0.00000000       0.00000000    
  0.299999982       0.00000000       1.00000000       0.00000000       0.00000000    
  0.310000002       0.00000000       1.00000000       0.00000000       0.00000000    
  0.319999993       0.00000000       1.00000000       0.00000000       0.00000000    
  0.329999983       0.00000000       1.00000000       0.00000000       0.00000000    
  0.340000004       0.00000000       1.00000000       0.00000000       0.00000000    
  0.349999994       0.00000000       1.00000000       0.00000000       0.00000000    
  0.359999985       0.00000000       1.00000000       0.00000000       0.00000000    
  0.370000005       0.00000000       1.00000000       0.00000000       0.00000000    
  0.379999995       0.00000000       1.00000000       0.00000000       0.00000000    
  0.389999986       0.00000000       1.00000000       0.00000000       0.00000000    
  0.399999976       0.00000000       1.00000000       0.00000000       0.00000000    
  0.409999996       0.00000000       1.00000000       0.00000000       0.00000000    
  0.419999987       0.00000000       1.00000000       0.00000000       0.00000000    
  0.429999977       0.00000000       1.00000000       0.00000000       0.00000000    
  0.439999998       0.00000000       1.00000000       0.00000000       0.00000000    
  0.449999988       0.00000000       1.00000000       0.00000000       0.00000000    
  0.459999979       0.00000000       1.00000000       0.00000000       0.00000000    
  0.469999999       0.00000000       1.00000000       0.00000000       0.00000000    
  0.479999989       0.00000000       1.00000000       0.00000000       0.00000000    
  0.489999980       0.00000000       1.00000000       0.00000000       0.00000000    
  0.500000000       0.00000000       1.00000000       0.00000000       0.00000000    
  0.509999990       0.00000000       1.00000000       0.00000000       0.00000000    
  0.519999981       0.00000000       1.00000000       0.00000000       0.00000000    
  0.529999971       0.00000000       1.00000000       0.00000000       0.00000000    
  0.539999962       0.00000000       1.00000000       0.00000000       0.00000000    
  0.550000012       0.00000000       1.00000000       0.00000000       0.00000000    
  0.560000002       0.00000000       1.00000000       0.00000000       0.00000000    
  0.569999993       0.00000000       1.00000000       0.00000000       0.00000000    
  0.579999983       0.00000000       1.00000000       0.00000000       0.00000000    
  0.589999974       0.00000000       1.00000000       0.00000000       0.00000000    
  0.599999964       0.00000000       1.00000000       0.00000000       0.00000000    
  0.610000014       0.00000000       1.00000000       0.00000000       0.00000000    
  0.620000005       0.00000000       1.00000000       0.00000000       0.00000000    
  0.629999995       0.00000000       1.00000000       0.00000000       0.00000000    
  0.639999986       0.00000000       1.00000000       0.00000000       0.00000000    
  0.649999976       0.00000000       1.00000000       0.00000000       0.00000000    
  0.659999967       0.00000000       1.00000000       0.00000000       0.00000000    
  0.669999957       0.00000000       1.00000000       0.00000000       0.00000000    
  0.680000007       0.00000000       1.00000000       0.00000000       0.00000000    
  0.689999998       0.00000000       1.00000000       0.00000000       0.00000000    
  0.699999988       0.00000000       1.00000000       0.00000000       0.00000000    
  0.709999979       0.00000000       1.00000000       0.00000000       0.00000000    
  0.719999969       0.00000000       1.00000000       0.00000000       0.00000000    
  0.729999959       0.00000000       1.00000000       0.00000000       0.00000000    
  0.740000010       0.00000000       1.00000000       0.00000000       0.00000000    
  0.750000000       0.00000000       1.00000000       0.00000000       0.00000000    
  0.759999990       0.00000000       1.00000000       0.00000000       0.00000000    
  0.769999981       0.00000000       1.00000000       0.00000000       0.00000000    
  0.779999971       0.00000000       1.00000000       0.00000000       0.00000000    
  0.789999962       0.00000000       1.00000000       0.00000000       0.00000000    
  0.799999952       0.00000000       1.00000000       0.00000000       0.00000000    
  0.810000002       0.00000000       1.00000000       0.00000000       0.00000000    
  0.819999993       0.00000000       1.00000000       0.00000000       0.00000000    
  0.829999983       0.00000000       1.00000000       0.00000000       0.00000000    
  0.839999974       0.00000000       1.00000000       0.00000000       0.00000000    
  0.849999964       0.00000000       1.00000000       0.00000000       0.00000000    
  0.859999955       0.00000000       1.00000000       0.00000000       0.00000000    
  0.870000005       0.00000000       1.00000000       0.00000000       0.00000000    
  0.879999995       0.00000000       1.00000000       0.00000000       0.00000000    
  0.889999986       0.00000000       1.00000000       0.00000000       0.00000000    
  0.899999976       0.00000000       1.00000000       0.00000000       0.00000000    
  0.909999967       0.00000000       1.00000000       0.00000000       0.00000000    
  0.919999957       0.00000000       1.00000000       0.00000000       0.00000000    
  0.930000007       0.00000000       1.00000000       0.00000000       0.00000000    
  0.939999998       0.00000000       1.00000000       0.00000000       0.00000000    
  0.949999988       0.00000000       1.00000000       0.00000000       0.00000000    
  0.959999979       0.00000000       1.00000000       0.00000000       0.00000000    
  0.969999969       0.00000000       1.00000000       0.00000000       0.00000000    
  0.979999959       0.00000000       1.00000000       0.00000000       0.00000000    
  0.989999950       0.00000000       1.00000000       0.00000000       0.00000000    
   0.00000000       9.99999978E-03   1.00000000       0.00000000       0.00000000    
   9.99999978E-03   9.99999978E-03  0.989759088       1.90638264E-06  -9.29667351E-07
   1.99999996E-02   9.99999978E-03  0.989757836       4.71232806E-06  -1.08774975E-06
   2.99999993E-02   9.99999978E-03  0.989754796       7.30375450E-06  -7.03840271E-07
   3.99999991E-02   9.99999978E-03  0.989750087       8.87144051E-06   1.39263179E-07
   4.99999970E-02   9.99999978E-03  0.989743829       8.92419121E-06   1.20820982E-06
   5.99999987E-02   9.99999978E-03  0.989736617       7.18344290E-06   2.45031242E-06
   7.00000003E-02   9.99999978E-03  0.989728272       3.47224636E-06   3.74136880E-06
   7.99999982E-02   9.99999978E-03  0.989719689      -2.26027305E-06   5.02868443E-06
   8.99999961E-02   9.99999978E-03  0.989710331      -9.94642505E-06   6.33108311E-06
   9.99999940E-02   9.99999978E-03  0.989701152      -1.95994380E-05   7.55822384E-06
  0.109999999       9.99999978E-03  0.989691913      -3.10424584E-05   8.68563984E-06
  0.119999997       9.99999978E-03  0.989682913      -4.42454075E-05   9.76978663E-06
  0.129999995       9.99999978E-03  0.989674389      -5.90219897E-05   1.07636088E-05
  0.140000001       9.99999978E-03  0.989666402      -7.52536434E-05   1.16840392E-05
  0.149999991       9.99999978E-03  0.989658892      -9.28142836E-05   1.24670851E-05
  0.159999996       9.99999978E-03  0.989652216      -1.11515663E-04   1.31936677E-05
  0.170000002       9.99999978E-03  0.989646375      -1.31327644E-04   1.38092028E-05
  0.179999992       9.99999978E-03  0.989641190      -1.52046952E-04   1.43419211E-05
  0.189999998       9.99999978E-03  0.989637077      -1.73547378E-04   1.47918145E-05
  0.199999988       9.99999978E-03  0.989633799      -1.95678338E-04   1.51833519E-05
  0.209999993       9.99999978E-03  0.989631593      -2.18356930E-04   1.54845311E-05
  0.219999999       9.99999978E-03  0.989630401      -2.41421207E-04   1.57480536E-05
  0.229999989       9.99999978E-03  0.989629984      -2.64807197E-04   1.59099254E-05
  0.239999995       9.99999978E-03  0.989630759      -2.88435636E-04   1.59870815E-05
  0.250000000       9.99999978E-03  0.989632607      -3.12080665E-04   1.60077561E-05
  0.259999990       9.99999978E-03  0.989635289      -3.35751654E-04   1.59644223E-05
  0.269999981       9.99999978E-03  0.989639103      -3.59329890E-04   1.58589610E-05
  0.280000001       9.99999978E-03  0.989643812      -3.82683618E-04   1.56913757E-05
  0.289999992       9.99999978E-03  0.989649713      -4.05739236E-04   1.54993049E-05
  0.299999982       9.99999978E-03  0.989656568      -4.28382016E-04   1.52074699E-05
  0.310000002       9.99999978E-03  0.989664376      -4.50551626E-04   1.48779827E-05
  0.319999993       9.99999978E-03  0.989673138      -4.72153944E-04   1.44920250E-05
  0.329999983       9.99999978E-03  0.989682972      -4.93160565E-04   1.40627708E-05
  0.340000004       9.99999978E-03  0.989693403      -5.13423118E-04   1.35827013E-05
  0.349999994       9.99999978E-03  0.989704907      -5.32950624E-04   1.30725157E-05
  0.359999985       9.99999978E-03  0.989717185      -5.51613455E-04   1.25134002E-05
  0.370000005       9.99999978E-03  0.989730299      -5.69319236E-04   1.18846556E-05
  0.379999995       9.99999978E-03  0.989744246      -5.86064300E-04   1.12521548E-05
  0.389999986       9.99999978E-03  0.989759028      -6.01735723E-04   1.05406216E-05
  0.399999976       9.99999978E-03  0.989774346      -6.16288453E-04   9.80087589E-06
  0.409999996       9.99999978E-03  0.989790499      -6.29692280E-04   9.03480031E-06
  0.419999987       9.99999978E-03  0.989807129      -6.41806284E-04   8.21981757E-06
  0.429999977       9.99999978E-03  0.989824295      -6.52666262E-04   7.41803069E-06
  0.439999998       9.99999978E-03  0.989842236      -6.62187464E-04   6.55605072E-06
  0.449999988       9.99999978E-03  0.989860296      -6.70313835E-04   5.65082109E-06
  0.459999979       9.99999978E-03  0.989879072      -6.77020638E-04   4.72680404E-06
  0.469999999       9.99999978E-03  0.989898086      -6.82266837E-04   3.78965001E-06
  0.479999989       9.99999978E-03  0.989917457      -6.86003536E-04   2.79796382E-06
  0.489999980       9.99999978E-03  0.989937007      -6.88223459E-04   1.80443476E-06
  0.500000000       9.99999978E-03  0.989956617      -6.88857050E-04   8.01536999E-07
  0.509999990       9.99999978E-03  0.989976287      -6.87928987E-04  -2.14491550E-07
  0.519999981       9.99999978E-03  0.989996135      -6.85433508E-04  -1.25305712E-06
  0.529999971       9.99999978E-03  0.990015686      -6.81361707E-04  -2.24830887E-06
  0.539999962       9.99999978E-03  0.990035355      -6.75641932E-04  -3.24352072E-06
  0.550000012       9.99999978E-03  0.990054727      -6.68391120E-04  -4.24621976E-06
  0.560000002       9.99999978E-03  0.990073621      -6.59554964E-04  -5.25076348E-06
  0.569999993       9.99999978E-03  0.990092218      -6.49167341E-04  -6.24022050E-06
  0.579999983       9.99999978E-03  0.990110457      -6.37282792E-04  -7.18825549E-06
  0.589999974       9.99999978E-03  0.990128040      -6.23850850E-04  -8.12309281E-06
  0.599999964       9.99999978E-03  0.990144968      -6.09050330E-04  -9.00899158E-06
  0.610000014       9.99999978E-03  0.990161300      -5.92873665E-04  -9.89674754E-06
  0.620000005       9.99999978E-03  0.990176797      -5.75352984E-04  -1.07148808E-05
  0.629999995       9.99999978E-03  0.990191519      -5.56541025E-04  -1.14953764E-05
  0.639999986       9.99999978E-03  0.990205288      -5.36608975E-04  -1.21893318E-05
  0.649999976       9.99999978E-03  0.990217984      -5.15560736E-04  -1.28588272E-05
  0.659999967       9.99999978E-03  0.990229607      -4.93544852E-04  -1.34775337E-05
  0.669999957       9.99999978E-03  0.990240335      -4.70657076E-04  -1.40097109E-05
  0.680000007       9.99999978E-03  0.990249813      -4.46946506E-04  -1.44685373E-05
  0.689999998       9.99999978E-03  0.990258098      -4.22578567E-04  -1.48690633E-05
  0.699999988       9.99999978E-03  0.990265131      -3.97690543E-04  -1.51887198E-05
  0.709999979       9.99999978E-03  0.990270972      -3.72402632E-04  -1.54237478E-05
  0.719999969       9.99999978E-03  0.990275562      -3.46803252E-04  -1.55384132E-05
  0.729999959       9.99999978E-03  0.990278780      -3.21022089E-04  -1.55816251E-05
  0.740000010       9.99999978E-03  0.990280688      -2.95286649E-04  -1.55552625E-05
  0.750000000       9.99999978E-03  0.990281463      -2.69705837E-04  -1.54198224E-05
  0.759999990       9.99999978E-03  0.990280867      -2.44401890E-04  -1.51960021E-05
  0.769999981       9.99999978E-03  0.990279078      -2.19515758E-04  -1.48442959E-05
  0.779999971       9.99999978E-03  0.990276277      -1.95237270E-04  -1.43966754E-05
  0.789999962       9.99999978E-03  0.990272045      -1.71664258E-04  -1.38851201E-05
  0.799999952       9.99999978E-03  0.990266860      -1.48978987E-04  -1.32945743E-05
  0.810000002       9.99999978E-03  0.990260601      -1.27322492E-04  -1.25855340E-05
  0.819999993       9.99999978E-03  0.990253508      -1.06769956E-04  -1.18012567E-05
  0.829999983       9.99999978E-03  0.990245640      -8.75696278E-05  -1.09191642E-05
  0.839999974       9.99999978E-03  0.990236998      -6.97986179E-05  -9.93361118E-06
  0.849999964       9.99999978E-03  0.990227759      -5.35547188E-05  -8.89349576E-06
  0.859999955       9.99999978E-03  0.990218103      -3.90128807E-05  -7.81010021E-06
  0.870000005       9.99999978E-03  0.990208149      -2.62126305E-05  -6.64391882E-06
  0.879999995       9.99999978E-03  0.990197957      -1.52273715E-05  -5.41563986E-06
  0.889999986       9.99999978E-03  0.990187824      -6.19070943E-06  -4.18545369E-06
  0.899999976       9.99999978E-03  0.990178049       9.25511756E-07  -2.90068920E-06
  0.909999967       9.99999978E-03  0.990168750       6.07043603E-06  -1.63659104E-06
  0.919999957       9.99999978E-03  0.990159988       9.31360228E-06  -4.10091957E-07
  0.930000007       9.99999978E-03  0.990152240       1.07396017E-05   7.22369464E-07
  0.939999998       9.99999978E-03  0.990145743       1.04612573E-05   1.72316345E-06
  0.949999988       9.99999978E-03  0.990140617       8.83219946E-06   2.50198605E-06
  0.959999979       9.99999978E-03  0.990137219       6.22112520E-06   2.90457115E-06
  0.969999969       9.99999978E-03  0.990135431       3.24883649E-06   2.75219918E-06
  0.979999959       9.99999978E-03  0.990135550       9.34957484E-07   1.79090443E-06
  0.989999950       9.99999978E-03   1.00000000       0.00000000       0.00000000    
   0.00000000       1.99999996E-02   1.00000000       0.00000000       0.00000000    
   9.99999978E-03   1.99999996E-02  0.989759564       2.56693443E-06  -2.99036583E-06
   1.99999996E-02   1.99999996E-02  0.989758551       5.92992592E-06  -3.37239840E-06
   2.99999993E-02   1.99999996E-02  0.989755690       8.53828988E-06  -1.94214567E-06
   3.99999991E-02   1.99999996E-02  0.989751458       9.19888498E-06   7.35835499E-07
   4.99999970E-02   1.99999996E-02  0.989745855       7.13068130E-06   4.17603133E-06
   5.99999987E-02   1.99999996E-02  0.989739239       1.88948331E-06   8.06982462E-06
   7.00000003E-02   1.99999996E-02  0.989732027      -6.85601344E-06   1.21650482E-05
   7.99999982E-02   1.99999996E-02  0.989723921      -1.91962426E-05   1.62979868E-05
   8.99999961E-02   1.99999996E-02  0.989715755      -3.50861264E-05   2.03707696E-05
   9.99999940E-02   1.99999996E-02  0.989707351      -5.44806026E-05   2.42685965E-05
  0.109999999       1.99999996E-02  0.989699125      -7.72310523E-05   2.79500528E-05
  0.119999997       1.99999996E-02  0.989690900      -1.03096674E-04   3.14132521E-05
  0.129999995       1.99999996E-02  0.989683151      -1.31911846E-04   3.46130037E-05
  0.140000001       1.99999996E-02  0.989675760      -1.63454548E-04   3.75135423E-05
  0.149999991       1.99999996E-02  0.989669025      -1.97495130E-04   4.01204888E-05
  0.159999996       1.99999996E-02  0.989662945      -2.33689134E-04   4.24583050E-05
  0.170000002       1.99999996E-02  0.989657521      -2.71902914E-04   4.45156838E-05
  0.179999992       1.99999996E-02  0.989652872      -3.11835232E-04   4.62888529E-05
  0.189999998       1.99999996E-02  0.989649177      -3.53262003E-04   4.77966096E-05
  0.199999988       1.99999996E-02  0.989646137      -3.95885872E-04   4.90446073E-05
  0.209999993       1.99999996E-02  0.989644289      -4.39552154E-04   5.00347051E-05
  0.219999999       1.99999996E-02  0.989643157      -4.83986194E-04   5.07989098E-05
  0.229999989       1.99999996E-02  0.989642918      -5.29040932E-04   5.13315681E-05
  0.239999995       1.99999996E-02  0.989643812      -5.74435689E-04   5.16025466E-05
  0.250000000       1.99999996E-02  0.989645600      -6.19999249E-04   5.17003245E-05
  0.259999990       1.99999996E-02  0.989648342      -6.65558211E-04   5.15364372E-05
  0.269999981       1.99999996E-02  0.989652097      -7.10892200E-04   5.11824037E-05
  0.280000001       1.99999996E-02  0.989656746      -7.55801739E-04   5.06627002E-05
  0.289999992       1.99999996E-02  0.989662349      -8.00183043E-04   4.99415692E-05
  0.299999982       1.99999996E-02  0.989668965      -8.43723596E-04   4.90095990E-05
  0.310000002       1.99999996E-02  0.989676595      -8.86400638E-04   4.79176197E-05
  0.319999993       1.99999996E-02  0.989684999      -9.27973480E-04   4.67032842E-05
  0.329999983       1.99999996E-02  0.989694238      -9.68330831E-04   4.52894346E-05
  0.340000004       1.99999996E-02  0.989704430      -1.00733142E-03   4.36892515E-05
  0.349999994       1.99999996E-02  0.989715457      -1.04482088E-03   4.19629687E-05
  0.359999985       1.99999996E-02  0.989727259      -1.08066201E-03   4.00767276E-05
  0.370000005       1.99999996E-02  0.989739895      -1.11468148E-03   3.80775782E-05
  0.379999995       1.99999996E-02  0.989753306      -1.14678335E-03   3.59090809E-05
  0.389999986       1.99999996E-02  0.989767313      -1.17688137E-03   3.35900695E-05
  0.399999976       1.99999996E-02  0.989782035      -1.20476075E-03   3.11600706E-05
  0.409999996       1.99999996E-02  0.989797533      -1.23041589E-03   2.86285012E-05
  0.419999987       1.99999996E-02  0.989813268      -1.25363865E-03   2.59445787E-05
  0.429999977       1.99999996E-02  0.989829898      -1.27439620E-03   2.32061484E-05
  0.439999998       1.99999996E-02  0.989846945      -1.29256141E-03   2.03229065E-05
  0.449999988       1.99999996E-02  0.989864409      -1.30808156E-03   1.73738972E-05
  0.459999979       1.99999996E-02  0.989882231      -1.32083276E-03   1.43403104E-05
  0.469999999       1.99999996E-02  0.989900470      -1.33077556E-03   1.12108646E-05
  0.479999989       1.99999996E-02  0.989918947      -1.33780297E-03   8.00250382E-06
  0.489999980       1.99999996E-02  0.989937603      -1.34190777E-03   4.75098523E-06
  0.500000000       1.99999996E-02  0.989956558      -1.34301290E-03   1.47512912E-06
  0.509999990       1.99999996E-02  0.989975333      -1.34112476E-03  -1.86081002E-06
  0.519999981       1.99999996E-02  0.989994168      -1.33617164E-03  -5.23613335E-06
  0.529999971       1.99999996E-02  0.990013003      -1.32818404E-03  -8.56805491E-06
  0.539999962       1.99999996E-02  0.990031600      -1.31715473E-03  -1.18960907E-05
  0.550000012       1.99999996E-02  0.990050197      -1.30311388E-03  -1.51938984E-05
  0.560000002       1.99999996E-02  0.990068197      -1.28607347E-03  -1.84803066E-05
  0.569999993       1.99999996E-02  0.990086138      -1.26604072E-03  -2.17364941E-05
  0.579999983       1.99999996E-02  0.990103543      -1.24314229E-03  -2.48702963E-05
  0.589999974       1.99999996E-02  0.990120232      -1.21735421E-03  -2.79325213E-05
  0.599999964       1.99999996E-02  0.990136445      -1.18892058E-03  -3.08799063E-05
  0.610000014       1.99999996E-02  0.990151942      -1.15784945E-03  -3.37312777E-05
  0.620000005       1.99999996E-02  0.990166783      -1.12421042E-03  -3.64076368E-05
  0.629999995       1.99999996E-02  0.990180850      -1.08818803E-03  -3.89804882E-05
  0.639999986       1.99999996E-02  0.990193844      -1.04994432E-03  -4.13445086E-05
  0.649999976       1.99999996E-02  0.990206122      -1.00964447E-03  -4.35128677E-05
  0.659999967       1.99999996E-02  0.990217328      -9.67486354E-04  -4.54874753E-05
  0.669999957       1.99999996E-02  0.990227520      -9.23595740E-04  -4.72608153E-05
  0.680000007       1.99999996E-02  0.990236759      -8.78266117E-04  -4.87783473E-05
  0.689999998       1.99999996E-02  0.990244627      -8.31636775E-04  -5.00570386E-05
  0.699999988       1.99999996E-02  0.990251482      -7.83998927E-04  -5.10667778E-05
  0.709999979       1.99999996E-02  0.990257025      -7.35578302E-04  -5.17793815E-05
  0.719999969       1.99999996E-02  0.990261436      -6.86577812E-04  -5.22569135E-05
  0.729999959       1.99999996E-02  0.990264714      -6.37311430E-04  -5.24222669E-05
  0.740000010       1.99999996E-02  0.990266621      -5.88066818E-04  -5.22999035E-05
  0.750000000       1.99999996E-02  0.990267575      -5.39054337E-04  -5.18521847E-05
  0.759999990       1.99999996E-02  0.990267217      -4.90559789E-04  -5.11035869E-05
  0.769999981       1.99999996E-02  0.990265727      -4.42870834E-04  -5.00202332E-05
  0.779999971       1.99999996E-02  0.990263045      -3.96301330E-04  -4.86228164E-05
  0.789999962       1.99999996E-02  0.990259290      -3.51063703E-04  -4.69639854E-05
  0.799999952       1.99999996E-02  0.990254581      -3.07453069E-04  -4.49854233E-05
  0.810000002       1.99999996E-02  0.990249038      -2.65773997E-04  -4.27115629E-05
  0.819999993       1.99999996E-02  0.990242660      -2.26216420E-04  -4.01499165E-05
  0.829999983       1.99999996E-02  0.990235388      -1.89077502E-04  -3.72948343E-05
  0.839999974       1.99999996E-02  0.990227401      -1.54633643E-04  -3.42008461E-05
  0.849999964       1.99999996E-02  0.990219057      -1.22999554E-04  -3.08472336E-05
  0.859999955       1.99999996E-02  0.990210116      -9.44837884E-05  -2.72791403E-05
  0.870000005       1.99999996E-02  0.990201056      -6.91822788E-05  -2.35567368E-05
  0.879999995       1.99999996E-02  0.990191758      -4.72418287E-05  -1.96574474E-05
  0.889999986       1.99999996E-02  0.990182638      -2.88205283E-05  -1.56376900E-05
  0.899999976       1.99999996E-02  0.990173757      -1.39372887E-05  -1.15689472E-05
  0.909999967       1.99999996E-02  0.990165353      -2.56964472E-06  -7.57349198E-06
  0.919999957       1.99999996E-02  0.990157425       5.31427895E-06  -3.68895599E-06
  0.930000007       1.99999996E-02  0.990150511       9.93071626E-06  -9.59398605E-08
  0.939999998       1.99999996E-02  0.990144551       1.16087931E-05   3.08890594E-06
  0.949999988       1.99999996E-02  0.990139842       1.07660735E-05   5.54199778E-06
  0.959999979       1.99999996E-02  0.990136683       8.09480389E-06   6.98489566E-06
  0.969999969       1.99999996E-02  0.990135014       4.56003636E-06   6.91718424E-06
  0.979999959       1.99999996E-02  0.990134954       1.42030854E-06   4.83093027E-06
  0.989999950       1.99999996E-02   1.00000000       0.00000000       0.00000000    
   0.00000000       2.99999993E-02   1.00000000       0.00000000       0.00000000    
   9.99999978E-03   2.99999993E-02  0.989762008       2.36556366E-06  -5.24677125E-06
   1.99999996E-02   2.99999993E-02  0.989760697       4.96072698E-06  -5.22231312E-06
   2.99999993E-02   2.99999993E-02  0.989757955       6.04284469E-06  -1.92144012E-06
   3.99999991E-02   2.99999993E-02  0.989754081       4.16470493E-06   3.63588333E-06
   4.99999970E-02   2.99999993E-02  0.989748895      -1.48296647E-06   1.06875204E-05
   5.99999987E-02   2.99999993E-02  0.989742815      -1.15306993E-05   1.85823610E-05
   7.00000003E-02   2.99999993E-02  0.989736021      -2.62985304E-05   2.68631193E-05
   7.99999982E-02   2.99999993E-02  0.989728808      -4.59634830E-05   3.52682182E-05
   8.99999961E-02   2.99999993E-02  0.989721239      -7.05143902E-05   4.35849979E-05
   9.99999940E-02   2.99999993E-02  0.989713550      -9.98911419E-05   5.15669162E-05
  0.109999999       2.99999993E-02  0.989705980      -1.33873633E-04   5.91857242E-05
  0.119999997       2.99999993E-02  0.989698529      -1.72211658E-04   6.62908424E-05
  0.129999995       2.99999993E-02  0.989691377      -2.14679400E-04   7.28540181E-05
  0.140000001       2.99999993E-02  0.989684641      -2.60877889E-04   7.88733378E-05
  0.149999991       2.99999993E-02  0.989678442      -3.10583127E-04   8.43167800E-05
  0.159999996       2.99999993E-02  0.989672899      -3.63413012E-04   8.92069002E-05
  0.170000002       2.99999993E-02  0.989668012      -4.19004238E-04   9.34966301E-05
  0.179999992       2.99999993E-02  0.989663780      -4.77061258E-04   9.71991176E-05
  0.189999998       2.99999993E-02  0.989660263      -5.37226326E-04   1.00376456E-04
  0.199999988       2.99999993E-02  0.989657700      -5.99113409E-04   1.03009792E-04
  0.209999993       2.99999993E-02  0.989655972      -6.62490900E-04   1.05112289E-04
  0.219999999       2.99999993E-02  0.989655077      -7.26959552E-04   1.06683954E-04
  0.229999989       2.99999993E-02  0.989655018      -7.92293518E-04   1.07775588E-04
  0.239999995       2.99999993E-02  0.989655912      -8.58100888E-04   1.08389060E-04
  0.250000000       2.99999993E-02  0.989657760      -9.24161344E-04   1.08507425E-04
  0.259999990       2.99999993E-02  0.989660501      -9.90171800E-04   1.08200344E-04
  0.269999981       2.99999993E-02  0.989664078      -1.05583086E-03   1.07482876E-04
  0.280000001       2.99999993E-02  0.989668608      -1.12092181E-03   1.06326777E-04
  0.289999992       2.99999993E-02  0.989674032      -1.18516048E-03   1.04788538E-04
  0.299999982       2.99999993E-02  0.989680409      -1.24827924E-03   1.02871920E-04
  0.310000002       2.99999993E-02  0.989687741      -1.31004839E-03   1.00544938E-04
  0.319999993       2.99999993E-02  0.989695787      -1.37023663E-03   9.78735043E-05
  0.329999983       2.99999993E-02  0.989704788      -1.42872683E-03   9.48820889E-05
  0.340000004       2.99999993E-02  0.989714682      -1.48512737E-03   9.15311757E-05
  0.349999994       2.99999993E-02  0.989725113      -1.53938995E-03   8.78321152E-05
  0.359999985       2.99999993E-02  0.989736557      -1.59122213E-03   8.38545166E-05
  0.370000005       2.99999993E-02  0.989748538      -1.64040795E-03   7.95513915E-05
  0.379999995       2.99999993E-02  0.989761412      -1.68683229E-03   7.49359024E-05
  0.389999986       2.99999993E-02  0.989775002      -1.73026568E-03   7.00250312E-05
  0.399999976       2.99999993E-02  0.989789069      -1.77054305E-03   6.48752684E-05
  0.409999996       2.99999993E-02  0.989803910      -1.80753402E-03   5.94715530E-05
  0.419999987       2.99999993E-02  0.989819169      -1.84103230E-03   5.37857086E-05
  0.429999977       2.99999993E-02  0.989835024      -1.87090796E-03   4.79325317E-05
  0.439999998       2.99999993E-02  0.989851356      -1.89704832E-03   4.18555937E-05
  0.449999988       2.99999993E-02  0.989867926      -1.91933371E-03   3.55492812E-05
  0.459999979       2.99999993E-02  0.989885032      -1.93764130E-03   2.90945100E-05
  0.469999999       2.99999993E-02  0.989902616      -1.95186213E-03   2.24329706E-05